LAMMPS data file via write_data, version 23 Jun 2022, timestep = 2510000

990 atoms
22 atom types
987 bonds
24 bond types
1962 angles
47 angle types
2916 dihedrals
70 dihedral types

4.568648259267288 25.431351740730385 xlo xhi
4.568648259267288 25.431351740730385 ylo yhi
4.568648259267288 25.431351740730385 zlo zhi

Masses

1 12.011
2 12.011
3 1.008
4 1.008
5 1.008
6 12.011
7 1.008
8 1.008
9 1.008
10 12.011
11 1.008
12 12.011
13 1.008
14 1.008
15 12.011
16 1.008
17 1.008
18 1.008
19 1.008
20 1.008
21 12.011
22 12.011

Pair Coeffs # lj/cut/coul/long

1 0.066 3.5
2 0.066 3.5
3 0.03 2.5
4 0.03 2.5
5 0.03 2.5
6 0.066 3.5
7 0.03 2.5
8 0.03 2.5
9 0.03 2.5
10 0.066 3.5
11 0.03 2.5
12 0.066 3.5
13 0.03 2.5
14 0.03 2.5
15 0.066 3.5
16 0.03 2.5
17 0.03 2.5
18 0.03 2.5
19 0.03 2.5
20 0.03 2.5
21 0.066 3.5
22 0.066 3.5

Bond Coeffs # harmonic

1 268 1.529
2 340 1.09
3 340 1.09
4 340 1.09
5 268 1.529
6 340 1.09
7 340 1.09
8 340 1.09
9 268 1.529
10 340 1.09
11 268 1.529
12 340 1.09
13 340 1.09
14 268 1.529
15 340 1.09
16 340 1.09
17 340 1.09
18 340 1.09
19 340 1.09
20 0 0
21 0 0
22 0 0
23 0 0
24 0 0

Angle Coeffs # harmonic

1 37.5 110.7
2 37.5 110.7
3 37.5 110.7
4 58.35 112.7
5 37.5 110.7
6 37.5 110.7
7 37.5 110.7
8 58.35 112.7
9 37.5 110.7
10 58.35 112.7
11 37.5 110.7
12 37.5 110.7
13 58.35 112.7
14 37.5 110.7
15 37.5 110.7
16 37.5 110.7
17 37.5 110.7
18 37.5 110.7
19 33 107.8
20 33 107.8
21 33 107.8
22 37.5 110.7
23 33 107.8
24 33 107.8
25 58.35 112.7
26 37.5 110.7
27 33 107.8
28 33 107.8
29 37.5 110.7
30 37.5 110.7
31 37.5 110.7
32 33 107.8
33 33 107.8
34 33 107.8
35 33 107.8
36 37.5 110.7
37 0 0
38 0 0
39 0 0
40 0 0
41 0 0
42 0 0
43 0 0
44 0 0
45 0 0
46 0 0
47 0 0

Dihedral Coeffs # opls

1 0 0 0.3 0
2 0 0 0.3 0
3 1.3 -0.2 0.2 0
4 1.3 -0.2 0.2 0
5 0 0 0.3 0
6 0 0 0.3 0
7 0 0 0.3 0
8 0 0 0.3 0
9 0 0 0.3 0
10 0 0 0.3 0
11 0 0 0.3 0
12 0 0 0.3 0
13 0 0 0.3 0
14 0 0 0.3 0
15 0 0 0.3 0
16 0 0 0.3 0
17 0 0 0.3 0
18 0 0 0.3 0
19 0 0 0.3 0
20 0 0 0.3 0
21 0 0 0.3 0
22 0 0 0.3 0
23 0 0 0.3 0
24 0 0 0.3 0
25 0 0 0.3 0
26 0 0 0.3 0
27 0 0 0.3 0
28 0 0 0.3 0
29 0 0 0.3 0
30 0 0 0.3 0
31 0 0 0.3 0
32 0 0 0.3 0
33 0 0 0.3 0
34 0 0 0.3 0
35 0 0 0.3 0
36 0 0 0.3 0
37 0 0 0.3 0
38 0 0 0.3 0
39 0 0 0.3 0
40 1.3 -0.2 0.2 0
41 0 0 0.3 0
42 0 0 0.3 0
43 0 0 0.3 0
44 0 0 0.3 0
45 0 0 0.3 0
46 0 0 0.3 0
47 0 0 0.3 0
48 0 0 0.3 0
49 0 0 0.3 0
50 0 0 0.3 0
51 0 0 0.3 0
52 0 0 0.3 0
53 0 0 0.3 0
54 0 0 0.3 0
55 0 0 0.3 0
56 0 0 0.3 0
57 0 0 0.3 0
58 0 0 0.3 0
59 0 0 0.3 0
60 0 0 0.3 0
61 0 0 0.3 0
62 0 0 0.3 0
63 0 0 0.3 0
64 0 0 0.3 0
65 0 0 0.3 0
66 0 0 0.3 0
67 0 0 0.3 0
68 0 0 0.3 0
69 0 0 0.3 0
70 0 0 0.3 0

Atoms # full

234 3 19 0.0813 7.518930831032355 6.3431510717618504 8.959573064428703 1 -1 0
225 3 14 0.0862 7.384517952596748 7.598084399808708 6.615371507349203 1 -1 0
765 2 14 0.0862 5.4792310099913575 4.722854112855248 6.209816924973585 1 1 0
217 3 15 -0.1567 8.43446442520013 6.86726830380049 9.32635195330738 1 -1 0
222 3 10 -0.1696 8.440518494346785 7.495009613774621 6.888682176605625 1 -1 0
220 3 21 -0.0911 8.652064815607615 8.07784413501284 8.382981744555174 1 -1 0
229 3 13 0.0862 8.756256761694074 6.532615337105106 6.764133299334599 1 -1 0
108 3 19 0.0813 6.587901060025115 8.48522275283386 8.853540001587007 1 -1 0
91 3 22 -0.1567 7.5008465944187614 9.0936206234772 8.782527992523976 1 -1 0
218 3 20 0.0813 9.197563210262762 6.109106256540522 9.29276601111144 1 -1 0
802 3 9 0.081 5.720348341141418 8.922635940633715 5.4555786638535775 1 0 1
219 3 16 0.0852 9.59108436169882 8.5933913088859 8.577801073914905 1 -1 0
799 3 6 -0.2334 4.753800390125505 8.72690790711843 5.020397676486248 1 0 1
224 3 11 0.098 8.62512885870854 9.434307115695603 5.856971749945208 1 -1 0
228 3 2 -0.1131 9.069548015198976 8.407535777519335 5.770977829239658 1 -1 0
797 3 8 0.081 4.571827257470243 7.684264175252307 5.038596910896559 1 0 1
809 3 5 0.0815 4.717096169750498 9.72485119548028 7.6187691803275595 1 0 1
48 3 2 -0.1131 5.010684938660863 7.6886234520413685 12.925722447606189 1 -1 0
43 3 6 -0.2334 5.190798833890557 7.451719055968786 14.443813754719914 1 -1 0
790 3 3 0.0815 8.00415686050399 9.0029381137043 14.952733366427559 1 0 0
49 3 13 0.0862 6.703446245413691 9.047807953990258 12.719687418678316 1 -1 0
52 3 3 0.0815 5.337097644410449 5.472069225204079 12.579257397661522 1 -1 0
51 3 4 0.0815 6.7231627825786235 6.603324806879106 12.11629208908924 1 -1 0
41 3 8 0.081 6.243937160738039 7.3788153321033 14.77786305247435 1 -1 0
53 3 5 0.0815 5.240641589610648 6.623625755232622 11.153783306174104 1 -1 0
50 3 1 -0.2418 5.658974456789617 6.497409783466786 12.158551899600894 1 -1 0
42 3 10 -0.1696 5.634850302058984 9.077682442565226 12.532031897725549 1 -1 0
93 3 16 0.0852 7.879031268233417 9.189661269088905 10.930183990135678 1 -1 0
39 3 16 0.0852 5.086579542724002 8.809851750710646 10.517373658499938 1 -1 0
178 3 3 0.0815 8.044205480279953 5.321119828747928 13.596968714223049 1 0 0
40 3 21 -0.0911 5.214828120945284 9.668516675732855 11.083578095958673 1 -1 0
46 3 9 0.081 4.877922454606534 6.504904268182589 14.662151315204802 1 -1 0
171 3 14 0.0862 7.50582142847848 5.504483289287447 16.197113653387095 1 0 0
255 3 16 0.0852 8.24710808948624 5.9997895114789745 18.548308975739914 1 0 0
254 3 20 0.0813 5.432640159665043 7.116438312865693 19.096220372246286 1 0 0
256 3 21 -0.0911 7.263379315617694 5.9455043453266025 18.937436762604897 1 0 0
787 3 13 0.0862 6.875958994321971 9.170860939620265 16.883110307634873 1 0 0
270 3 19 0.0813 6.182086603817359 7.0525945232920515 17.51832030776135 1 0 0
253 3 22 -0.1567 6.363569210710518 7.171287618035597 18.554998090057985 1 0 0
777 3 16 0.0852 7.606731957243168 8.569199097936389 19.66334920352994 1 0 0
778 3 21 -0.0911 6.858123420690326 8.614068436049225 18.885532905980604 1 0 0
780 3 10 -0.1696 7.542950457305473 9.297707603983767 17.685858087720973 1 0 0
180 3 19 0.0813 5.59314353495597 5.052129895136167 18.088194558076275 1 0 0
775 3 22 -0.1567 5.730041310087136 9.542465059465796 19.498490928959338 1 0 0
782 3 11 0.098 8.485601435909114 7.613010633360613 16.96745292198017 1 0 0
786 3 2 -0.1131 8.751962560098512 8.653534695310078 17.021322081477898 1 0 0
788 3 1 -0.2418 8.752466734378462 9.348232607041705 15.610999514796195 1 0 0
792 3 19 0.0813 4.912607917248599 9.484959537727775 18.80074245394285 1 0 0
163 3 22 -0.1567 6.5692897864864115 4.727441048109751 18.446069371567415 1 0 0
789 3 4 0.0815 9.711352397880873 9.144369125606097 15.054090394323012 1 0 0
47 3 7 0.081 4.7234986617713455 8.242013391566408 15.041740917890822 1 -1 0
868 3 21 -0.0911 5.331882674525824 9.276264408514972 20.90321140125835 1 0 0
264 3 2 -0.1131 8.817741003513312 5.281182483867517 20.8985649228117 1 0 0
265 3 13 0.0862 7.4740013333427555 6.905455208290364 20.810896404341502 1 0 0
867 3 16 0.0852 6.059314270558666 8.518249469308047 21.29319955844451 1 0 0
261 3 14 0.0862 6.620944193197527 5.391517507352463 21.03429467847458 1 0 0
259 3 6 -0.2334 8.76502389223555 4.941398607998111 22.43906152442331 1 0 0
869 3 8 0.081 5.381632466046561 6.965853709306108 22.57819678862204 1 0 0
258 3 10 -0.1696 7.485235145410437 5.91026219346347 20.536899950882667 1 0 0
263 3 7 0.081 8.56197981828476 5.850647520348759 23.020925737357533 1 0 0
226 3 9 0.081 7.802028749595904 7.3441226953371 25.19626004618676 1 -1 -1
803 3 7 0.081 4.79214028233401 9.004144675938386 24.8218133192679 1 0 0
227 3 7 0.081 9.571685889381907 7.067961521306014 24.914136000351068 1 -1 -1
221 3 8 0.081 8.848229417713881 8.54819539379606 24.394460948028335 1 -1 -1
223 3 6 -0.2334 8.768632072104019 7.806374145599689 25.223442527234177 1 -1 -1
257 3 8 0.081 9.75258739608367 4.673970978952035 22.901838052778636 1 0 0
92 3 20 0.0813 7.310413499417864 9.831961740004164 8.043535466659362 1 -1 0
103 3 13 0.0862 9.448477220034565 10.758775530115702 9.149813333333013 1 -1 0
965 3 7 0.081 5.139082927358084 12.431207445060966 5.96421380550775 1 0 1
862 2 3 0.0815 9.31851920523821 11.5964489595253 4.874973635311915 0 0 0
964 3 9 0.081 5.544053248431634 13.337231359324747 7.484042564679719 1 0 1
860 2 1 -0.2418 9.75898663152904 12.432798685810873 5.403291237588727 0 0 0
857 2 7 0.081 8.610977341719117 14.682531465803843 6.1077240392493275 0 0 0
54 3 19 0.0813 6.027027085014717 10.984884517984533 9.605965213737713 1 -1 0
961 3 6 -0.2334 4.812741726461715 13.151312520286803 6.701102363155769 1 0 1
853 2 6 -0.2334 8.429066028340596 14.454804530723484 5.060955401072398 0 0 0
858 2 2 -0.1131 9.697291964856541 13.713589525706148 4.628906288680052 0 0 0
851 2 8 0.081 7.638323553855888 13.731928909948307 5.009137870348406 0 0 0
861 2 4 0.0815 9.4483929317682 12.458398281776132 6.423624569292851 0 0 0
962 3 11 0.098 5.248786710526604 14.966307728394234 5.551548367885636 1 0 1
247 3 13 0.0862 6.42262271177445 13.986117938037832 14.479903447384855 1 -1 0
38 3 20 0.0813 6.596018197407414 11.33573877589118 11.156350126481662 1 -1 0
95 3 8 0.081 8.900815700101315 10.12934703517416 12.958809710482457 1 -1 0
633 3 16 0.0852 5.804036016018988 13.315478147158698 12.466237748903495 1 -1 0
99 3 14 0.0862 8.439679448638566 11.85667322289007 9.790397406413238 1 -1 0
646 3 3 0.0815 8.526156396967483 14.284823409264057 10.232308112007145 1 -1 0
634 3 21 -0.0911 5.203638560284796 14.08663587822038 11.921912211649717 1 -1 0
645 3 4 0.0815 8.352872409309702 13.655129533051772 11.92574798876701 1 -1 0
96 3 10 -0.1696 8.847970865097077 10.895147542610609 10.052496564625828 1 -1 0
648 3 19 0.0813 4.830272187924067 12.703441569734029 10.277096097523083 1 -1 0
94 3 21 -0.0911 7.702026379891154 9.853347490142117 10.140858065766643 1 -1 0
37 3 22 -0.1567 6.335426609495525 10.514414789788955 10.510199340081611 1 -1 0
97 3 6 -0.2334 9.237787240845812 11.1315486885769 12.625595100891234 1 -1 0
644 3 1 -0.2418 8.422010905445013 14.563089093413186 11.292169044379758 1 -1 0
643 3 13 0.0862 6.185183409286801 14.365045306407545 9.94611961955303 1 -1 0
636 3 10 -0.1696 6.022110944170826 14.907034053194684 10.912551990738088 1 -1 0
100 3 9 0.081 8.384659087036553 11.800200630594876 12.56831856496484 1 -1 0
45 3 14 0.0862 5.33849669619991 9.844315207715216 13.275126748752841 1 -1 0
251 3 5 0.0815 4.713115562790726 11.655132369400073 14.880414795634518 1 -1 0
245 3 7 0.081 7.024185906022609 14.163465440589292 17.653908958273895 1 -1 0
731 3 7 0.081 8.742078712361938 12.637708565448227 20.026684256421337 1 0 0
776 3 20 0.0813 6.08632224602743 10.603180182501571 19.440752361594804 1 0 0
242 3 11 0.098 4.808980621216872 13.285531215312023 16.779967824161687 1 -1 0
246 3 2 -0.1131 5.739931822701939 13.141575769543136 16.228011962639222 1 -1 0
241 3 6 -0.2334 7.03541655152255 13.259623655073497 17.07365697948314 1 -1 0
250 3 3 0.0815 5.377498590980839 11.065288726455684 16.42497053276473 1 -1 0
239 3 8 0.081 7.959897331354245 13.285741003693344 16.476526293864012 1 -1 0
248 3 1 -0.2418 5.5505711171459 11.779913943313037 15.573507268940785 1 -1 0
244 3 9 0.081 7.12212880339802 12.387929703671048 17.71484405989603 1 -1 0
725 3 8 0.081 9.022920854242622 10.917082549478135 19.724163352165633 1 0 0
783 3 14 0.0862 7.638316574510705 10.381062267061422 17.80650487039998 1 0 0
240 3 10 -0.1696 5.638192803437348 14.259934152552347 15.167340327051308 1 -1 0
249 3 4 0.0815 6.440305315583081 11.537651463923737 15.078694764756815 1 -1 0
791 3 5 0.0815 8.611878066430055 10.421406954856657 15.602317868958675 1 0 0
473 3 8 0.081 5.05941200591396 14.269871548378987 19.41287793650524 1 0 0
729 3 14 0.0862 8.008950681614568 9.797980590384174 21.468375507258934 1 0 0
722 3 20 0.0813 7.262803201255765 12.94490064493316 23.27375721133922 1 0 0
724 3 21 -0.0911 6.588053256233271 11.43151163884996 21.797253864915092 1 0 0
723 3 16 0.0852 6.617925565546681 11.963905102064448 20.870531809580882 1 0 0
472 3 21 -0.0911 5.462953122992506 13.65857400168449 22.371607081707154 1 0 0
721 3 22 -0.1567 6.361341559736669 12.509872834650594 22.857527027989903 1 0 0
727 3 6 -0.2334 9.380889585960748 11.802389320236403 20.293122312124822 1 0 0
738 3 19 0.0813 5.821064699916705 12.079586735758753 23.699700760883015 1 0 0
865 3 22 -0.1567 5.335052296073689 10.470853199646768 21.772007509346984 1 0 0
728 3 11 0.098 9.109850467079543 12.477273976316553 22.26968154846738 1 0 0
866 3 20 0.0813 5.023161766575712 10.19947783935731 22.863666724922755 1 0 0
477 3 14 0.0862 6.819497440403799 14.088727549814669 20.838852118470026 1 0 0
726 3 10 -0.1696 7.967148745063142 10.69375358606411 22.08858171289037 1 0 0
733 3 13 0.0862 7.8789623548565 10.231189105383404 23.05484624382503 1 0 0
732 3 2 -0.1131 9.253569591415626 11.547903663127363 21.792402068388423 1 0 0
474 3 10 -0.1696 6.254978227652772 14.651563168646732 21.550204395609796 1 0 0
854 2 11 0.098 9.523878040855383 13.319354990690332 24.55066642062046 0 0 -1
470 3 20 0.0813 5.42963731090565 14.701030482601366 24.16469897861855 1 0 0
471 3 16 0.0852 4.715912161798297 13.294387456639596 21.659144091858913 1 0 0
469 3 22 -0.1567 4.681040226295805 14.301673161488992 23.4858326587823 1 0 0
35 2 5 0.0815 7.987102880337401 19.540461643944212 9.264871639812078 1 0 0
33 2 4 0.0815 7.1794611813148705 18.789481284439155 7.781137318831034 1 0 0
25 2 6 -0.2334 5.206259753693658 19.558588160673587 9.065733888945246 1 0 0
641 3 7 0.081 7.643422878194731 16.61291274232046 9.46237060030704 1 -1 0
671 2 8 0.081 7.690592184994129 17.838584163803688 5.21148993217172 0 0 0
673 2 6 -0.2334 6.678769997959448 17.730154009955356 4.852055309902134 0 0 0
28 2 9 0.081 5.148253886272923 18.59312772704508 8.51852179283176 1 0 0
677 2 7 0.081 6.012363443283815 18.10792693996806 5.696008119339448 0 0 0
32 2 1 -0.2418 7.447087375832718 19.684958611755025 8.318297855767444 1 0 0
970 3 3 0.0815 4.884634155229354 16.08831789324159 7.417842375610286 1 0 1
637 3 6 -0.2334 7.639475340649946 16.837517942177612 10.51245174730953 1 -1 0
635 3 8 0.081 8.56395696029499 17.352710347483757 10.74039713165341 1 -1 0
642 3 2 -0.1131 7.288822166911912 15.61826728869988 11.390907457900823 1 -1 0
23 2 8 0.081 5.269813527440925 19.31013564540473 10.087211179155215 1 0 0
640 3 9 0.081 6.892399462250138 17.68192609466618 10.749423619343386 1 -1 0
638 3 11 0.098 7.0912870508653825 15.989700604815466 12.424869552774826 1 -1 0
554 3 1 -0.2418 7.152025977173339 19.162892339314 13.934082526483007 1 -1 0
639 3 14 0.0862 5.311863397027021 15.721477558463862 10.589816455916742 1 -1 0
555 3 4 0.0815 7.476458711983298 18.39219139298845 13.311605525783207 1 -1 0
551 3 7 0.081 5.191945662524106 17.5902675388634 14.200070783312308 1 -1 0
236 3 20 0.0813 4.828518846032867 15.892732080335088 12.914320429058794 1 -1 0
647 3 5 0.0815 9.31362691656006 15.042279634725691 11.746227128609073 1 -1 0
557 3 5 0.0815 7.893802905157516 19.892551433280243 14.06806254167686 1 -1 0
556 3 3 0.0815 6.375811111025467 19.73195632040158 13.369261405646855 1 -1 0
543 3 16 0.0852 9.479363678802503 18.829553816498482 15.65936119740384 1 -1 0
485 3 5 0.0815 6.180840603690385 17.350703412748892 19.295011846078772 1 0 0
541 3 22 -0.1567 8.866611357727768 18.946996977446567 17.696724519954188 1 -1 0
558 3 19 0.0813 7.8308352199240705 19.207564704463522 17.74735426822803 1 -1 0
548 3 11 0.098 6.41919662155828 19.54271810731209 15.992817399317893 1 -1 0
544 3 21 -0.0911 9.01636072742245 18.218609762741835 16.416234840114413 1 -1 0
484 3 3 0.0815 7.176583625497658 16.00435046721637 19.342084457091083 1 0 0
542 3 20 0.0813 9.102713472073583 18.280831010698492 18.49556103861043 1 -1 0
546 3 10 -0.1696 7.603423100154119 17.614090629432162 15.93980643576691 1 -1 0
547 3 6 -0.2334 5.225458912823529 18.128722811070844 15.209789088330337 1 -1 0
549 3 14 0.0862 7.0896762042759605 17.0387873602576 16.725184135434354 1 -1 0
550 3 9 0.081 4.887898394719899 17.446079284087205 16.020135326751834 1 -1 0
552 3 2 -0.1131 6.6308644648897515 18.656505246998492 15.329864686980034 1 -1 0
482 3 1 -0.2418 6.568181426149307 16.60645181149862 19.992869436377283 1 0 0
363 3 16 0.0852 9.07194286690984 15.466318941351277 17.3540946756838 1 -1 0
243 3 14 0.0862 5.846217995216817 15.212782976791106 15.637017965085894 1 -1 0
475 3 6 -0.2334 4.600058678681997 15.131974850741171 19.8577664207748 1 0 0
553 3 13 0.0862 7.7354869341603685 16.842664822947135 15.214137557149323 1 -1 0
678 2 2 -0.1131 6.691954689128167 18.54195948805576 24.407914681577434 0 0 -1
679 2 13 0.0862 7.277780576438829 18.369405707867443 22.33615882254596 0 0 -1
667 2 22 -0.1567 9.74426472813716 17.337908986287648 22.292127072263032 0 0 -1
684 2 19 0.0813 9.195558859801658 16.372398961883235 22.16100645399611 0 0 -1
674 2 11 0.098 7.0901982468368026 19.5730525501214 24.54676620682149 0 0 -1
675 2 14 0.0862 7.422498987263218 16.866987338458976 23.21266491499358 0 0 -1
672 2 10 -0.1696 7.580812512892303 17.918122210309228 23.31546642463983 0 0 -1
680 2 1 -0.2418 5.293714391954745 18.594113425533 23.806922162125417 0 0 -1
670 2 12 -0.0911 9.040656939604371 18.10886822175691 23.47367979120968 0 0 -1
683 2 5 0.0815 4.717120703890446 19.196554272357098 24.51538017456378 0 0 -1
476 3 11 0.098 5.037965505601827 16.45759246662988 21.40926150706824 1 0 0
668 2 20 0.0813 9.606820366983744 17.805490957366793 21.31967066914376 0 0 -1
681 2 4 0.0815 5.24092767545079 19.163026736950144 22.87865847602947 0 0 -1
669 2 16 0.0852 9.280363047473418 19.18686060849617 23.515720334812464 0 0 -1
480 3 2 -0.1131 5.559975440161911 15.772102435769607 20.785532061643316 1 0 0
467 3 5 0.0815 5.524479360329325 19.750574979021323 20.94452931265179 1 -1 0
856 2 9 0.081 8.135681743648373 15.346766612992777 25.403839180111635 0 0 -1
481 3 13 0.0862 7.063488333679672 15.137036113582207 22.14462894669481 1 0 0
676 2 9 0.081 6.357743949523482 16.658190278137965 25.41900683272307 0 0 -1
483 3 4 0.0815 7.28290467008269 17.09802021853271 20.57090716007044 1 0 0
682 2 3 0.0815 4.853840108556959 17.626382127940524 23.668549263721918 0 0 -1
22 2 21 -0.0911 5.356419353608009 22.75694053952922 9.308943396558101 1 0 0
30 2 2 -0.1131 6.232269334203481 20.561621840985907 8.478082140149022 1 0 0
768 2 2 -0.1131 5.249585401135736 23.707989732837294 5.1222651428194474 1 0 0
758 2 20 0.0813 6.225551360234903 24.572742499788585 8.4833199042779 1 0 0
34 2 3 0.0815 8.003856107090103 20.29637853111729 7.556704961197421 1 0 0
774 2 19 0.0813 6.235729162625455 23.246245538996256 7.686389283069461 1 0 0
764 2 11 0.098 5.6687236120599565 22.872923598018556 5.732260780094112 1 0 0
757 2 22 -0.1567 5.55732093941587 23.77909870032248 8.243436861274603 1 0 0
26 2 11 0.098 5.876899974592503 20.888118110141228 7.508178566005142 1 0 0
31 2 13 0.0862 7.5176550932075745 22.18482137624478 9.251298452425031 1 0 0
24 2 10 -0.1696 6.493402279744426 21.757136649513022 9.369239057663869 1 0 0
659 2 7 0.081 9.101965403525517 20.762592228997725 5.898484832783974 0 0 0
658 2 9 0.081 8.512864334924238 22.095957207180387 4.8029516125662965 0 0 0
586 1 9 0.081 9.08486834073076 23.7504776810275 9.142523801249677 0 -1 0
655 2 6 -0.2334 9.28848407118721 21.301816479370757 4.978342607119643 0 0 0
762 2 10 -0.1696 4.721368727393766 24.821981069549143 6.073607396282905 1 0 0
761 2 8 0.081 7.249962155691831 24.58286298891767 4.586161596771753 1 0 0
936 2 19 0.0813 5.119256828093636 23.31574513424451 13.540568657218616 1 0 0
19 2 22 -0.1567 5.026215557360059 23.266537566663857 10.734216782434668 1 0 0
36 2 19 0.0813 5.9725197287293845 23.575471567721607 11.140676939931463 1 0 0
591 1 4 0.0815 9.433221340292933 20.827088545287722 10.84887587045392 0 -1 0
921 2 16 0.0852 4.96503521506306 21.456578469311662 11.82422513018512 1 0 0
176 3 1 -0.2418 8.004917002494844 25.116096845959703 13.654702707389307 1 -1 0
27 2 14 0.0862 6.5931313336608 21.35871436423508 10.3224154934734 1 0 0
581 1 8 0.081 8.461651394732373 23.572821108487744 10.678105977469603 0 -1 0
583 1 6 -0.2334 9.393606650775807 23.699019804121335 10.191319431528013 0 -1 0
179 3 5 0.0815 8.795315471237172 24.701950112376718 13.069731512174869 1 -1 0
177 3 4 0.0815 6.9740127158721315 24.861410022416894 13.304409087539614 1 -1 0
454 3 21 -0.0911 7.6541967539029105 22.1801537330003 18.295556111681485 1 -1 0
165 3 16 0.0852 8.334175508911773 24.654172030185272 17.867775489615365 1 -1 0
468 3 19 0.0813 6.568663470889307 22.76263213929101 16.548980882201413 1 -1 0
452 3 20 0.0813 5.810659659293831 23.262203018926467 17.783551978674367 1 -1 0
72 3 19 0.0813 9.498866896792142 22.368242379326336 17.13381702880551 1 -1 0
166 3 21 -0.0911 7.345272313526636 24.701501668322194 17.485521750866933 1 -1 0
55 3 22 -0.1567 8.791073951270093 21.597334532846382 17.38994437560722 1 -1 0
451 3 22 -0.1567 6.819102929762048 23.23177570519002 17.455978227359118 1 -1 0
164 3 20 0.0813 6.403384461746244 24.902327962455036 19.268271012977902 1 -1 0
67 3 13 0.0862 9.48802223547903 20.32792940891262 19.91763140770326 1 -1 0
462 3 2 -0.1131 5.719575920353456 21.565336097286053 19.9646789599199 1 -1 0
453 3 16 0.0852 8.291702696098058 22.705890290193953 19.108442564868767 1 -1 0
456 3 10 -0.1696 6.703391438241839 21.12958202585953 18.894262091515408 1 -1 0
56 3 20 0.0813 8.488043382145486 21.392022982144596 16.33171790512658 1 -1 0
458 3 11 0.098 5.033271944912945 22.337581610770854 19.589962894930515 1 -1 0
168 3 10 -0.1696 7.41836432727607 25.303519460971927 16.05954184801748 1 -1 0
58 3 21 -0.0911 9.633678950082615 20.323068187670977 17.793985556163562 1 -1 0
174 3 2 -0.1131 8.392095883311265 24.712853760214276 15.070893014684394 1 -1 0
463 3 13 0.0862 6.1655218825378935 20.722631184814578 18.08615249228247 1 -1 0
459 3 14 0.0862 7.217429827211538 20.342027686176664 19.389163172209738 1 -1 0
175 3 13 0.0862 6.376686360478636 25.372802351287703 15.66767354231339 1 -1 0
169 3 6 -0.2334 9.784246463635235 25.0962888535895 15.503467730950257 1 -1 0
170 3 11 0.098 8.405735971570973 23.620077509832782 15.088517919190293 1 -1 0
461 3 7 0.081 5.694299184621128 22.438368390335143 21.978075916662075 1 -1 0
455 3 8 0.081 6.800669920341142 23.304613975255837 20.83601374238914 1 -1 0
653 2 8 0.081 9.14403040767023 20.413762374512448 25.201329806525717 0 0 -1
460 3 9 0.081 7.364461166486045 21.75136712086462 21.557191433699288 1 -1 0
457 3 6 -0.2334 6.432467561423147 22.290593366775333 21.13773672283068 1 -1 0
767 2 7 0.081 6.703045019428844 23.366239001095227 24.431677654837845 1 0 -1
262 3 9 0.081 8.030620702317808 25.016258631737585 22.676145705735994 1 -1 0
763 2 6 -0.2334 6.3096657716950055 24.154495521646233 24.988288719149836 1 0 -1
260 3 11 0.098 8.86311968084738 25.14003837242493 20.406692963405046 1 -1 0
464 3 1 -0.2418 4.897709706476248 20.38355777114085 20.451876244286368 1 -1 0
766 2 9 0.081 5.878565102709088 24.945559194742973 24.421134662697625 1 0 -1
393 2 4 0.0815 12.323339654534355 4.841269811229451 6.924158233669177 0 1 0
230 3 1 -0.2418 10.598514930785308 8.532830836552224 5.911806694801826 1 -1 0
231 3 4 0.0815 10.863341111655071 8.882352237977605 6.866911446715767 1 -1 0
401 3 8 0.081 14.91109227652065 8.323366386463363 8.042885471252614 0 0 1
232 3 3 0.0815 11.041063606116978 7.518935895820809 5.761149992713804 1 -1 0
233 3 5 0.0815 11.125210191390407 9.11217926353519 5.175538631906589 1 -1 0
6 1 10 -0.1696 12.795809385830271 5.127740989702592 12.97278441238202 0 0 0
9 1 14 0.0862 13.30269557512245 5.879077809449861 13.567791260966024 0 0 0
207 1 14 0.0862 14.831792253166391 9.126906589433045 13.196082580754261 0 0 0
14 1 1 -0.2418 11.07952670375182 6.745024768772673 11.808805198846255 0 0 0
17 1 5 0.0815 10.33016784819439 6.1281278567729505 12.25630632051146 0 0 0
11 1 7 0.081 14.199448984975664 5.892601238817976 10.455944633472384 0 0 0
12 1 2 -0.1131 12.331859548607248 5.843061700392773 11.707699726831724 0 0 0
16 1 3 0.0815 10.871605453375246 7.157341524016037 10.818453065495387 0 0 0
5 1 8 0.081 14.139216197386377 7.104656186709754 11.722620194057683 0 0 0
15 1 4 0.0815 11.302252883556168 7.573944455197529 12.566429547435527 0 0 0
10 1 9 0.081 13.117714338483827 7.312247226002203 10.20564481135603 0 0 0
7 1 6 -0.2334 13.466582907014994 6.596338783122829 10.945281140070222 0 0 0
8 1 11 0.098 12.11813281866787 5.157435177075975 10.8714985924059 0 0 0
13 1 13 0.0862 11.967902832379474 4.882685479612681 13.510170409923782 0 0 0
183 1 16 0.0852 14.902896937638669 5.417316320721083 14.992241752984118 0 0 0
208 1 9 0.081 12.791266415133453 7.960857937060921 14.876983637363168 0 0 0
214 1 3 0.0815 12.214083732460377 9.748099182308621 13.518689533777161 0 0 0
779 3 8 0.081 10.907314239174024 8.374897513476867 17.532174847316007 1 0 0
192 1 2 -0.1131 14.244513484044507 5.306668279324584 17.520425785638267 0 0 0
781 3 6 -0.2334 10.03886773922664 8.95780655903759 17.821684649341318 1 0 0
209 1 7 0.081 12.892367685906448 8.750994574133344 16.472425235901984 0 0 0
196 1 3 0.0815 12.571469391909007 6.515845610418054 17.426853129112438 0 0 0
267 3 4 0.0815 10.415587137819063 5.91735230801281 19.55675227495363 1 0 0
187 1 6 -0.2334 14.214503286396459 4.902681989864201 18.965476303990414 0 0 0
185 1 8 0.081 13.942393434752878 5.834373611705438 19.53239070935389 0 0 0
194 1 1 -0.2418 12.864313517357612 5.5725432167137265 16.990129802154073 0 0 0
188 1 11 0.098 14.838409614271448 6.218341031216923 17.342268805642753 0 0 0
167 3 8 0.081 9.945286026039064 5.291952866556079 15.29238386171531 1 0 0
205 1 6 -0.2334 13.42888365213578 8.514642407435272 15.531759072254196 0 0 0
197 1 5 0.0815 12.828933355450168 5.669917499790647 15.882955895742464 0 0 0
203 1 8 0.081 14.20274539233589 7.722765097880207 15.623443817699926 0 0 0
784 3 9 0.081 10.111659158439581 8.63460512386024 18.834108596797925 1 0 0
195 1 4 0.0815 12.169532210962014 4.825140978590554 17.36967528663408 0 0 0
447 3 4 0.0815 12.829317640932082 9.776039202903187 19.93267495169696 0 0 0
559 3 22 -0.1567 14.84857943463747 9.107486314759237 24.831402180220394 0 0 0
445 3 13 0.0862 13.33545722059694 9.086906092171745 22.276124558862957 0 0 0
438 3 10 -0.1696 14.343075389780324 9.62456678634125 22.313076695692413 0 0 0
434 3 20 0.0813 14.919871620758405 7.263995466745713 22.179706818228908 0 0 0
268 3 3 0.0815 9.847062325401343 7.190908932283406 20.597766049631005 1 0 0
576 3 19 0.0813 13.781541340424063 9.480991122891673 24.71374274543393 0 0 0
269 3 5 0.0815 10.917352790835892 5.935490194201603 21.212341933660113 1 0 0
266 3 1 -0.2418 10.024595717008618 6.12530837314634 20.54718132460129 1 0 0
560 3 20 0.0813 14.836167720264678 8.136196188662005 25.424155866240724 0 0 0
863 2 5 0.0815 10.801643722815925 12.071095436416758 5.538595948412346 0 0 0
859 2 13 0.0862 11.978727487149746 14.119756788739947 4.643929748797768 0 0 0
852 2 10 -0.1696 11.008122188350319 14.53412328459407 4.924025739590897 0 0 0
561 3 16 0.0852 14.957906176973514 9.854260619089949 5.8172770642311935 0 0 1
855 2 14 0.0862 10.96456160511763 14.817713616305513 5.969654637618137 0 0 0
567 3 14 0.0862 14.923090406185853 12.126280336407195 5.6660230656093695 0 0 1
564 3 10 -0.1696 14.939523447898592 11.5682822956515 4.679094385224681 0 0 1
905 1 8 0.081 14.621509528061159 12.724988174243839 11.734642426544442 0 0 0
213 1 4 0.0815 12.886507317759262 11.325907252160086 13.642058772471142 0 0 0
101 3 7 0.081 9.966158692835041 11.580453679000188 13.301621531138677 1 -1 0
107 3 5 0.0815 10.413943142411014 13.001559520819267 10.783308294210421 1 -1 0
102 3 2 -0.1131 9.81443181844908 10.887966294929267 11.229701204672958 1 -1 0
98 3 11 0.098 10.34716309713112 9.952270671042424 11.238432093003176 1 -1 0
106 3 3 0.0815 11.380155969516416 11.8224561377891 9.954267969838329 1 -1 0
104 3 1 -0.2418 10.873096743154882 11.999100209240256 10.879768964177394 1 -1 0
212 1 1 -0.2418 12.62603667350988 10.435695744240164 14.256455593522034 0 0 0
105 3 4 0.0815 11.675550760269381 11.97702967306694 11.603879295972021 1 -1 0
911 1 7 0.081 14.076468258435892 13.34274186472548 10.093776208011585 0 0 0
907 1 6 -0.2334 14.919483889978723 12.887619397187715 10.669491188731406 0 0 0
210 1 2 -0.1131 13.889412623910877 9.835787636617471 14.913312936799063 0 0 0
449 3 5 0.0815 14.162907551255053 10.145580745357798 18.922849475083858 0 0 0
370 3 9 0.081 12.497033837259284 11.944993202930355 17.235292957016675 1 -1 0
372 3 2 -0.1131 11.175454667629241 13.66541692883437 17.373420837830906 1 -1 0
206 1 11 0.098 14.078686228647483 10.43128162606893 15.786397118143462 0 0 0
371 3 7 0.081 12.825979633066382 12.98603713919005 18.57784240809918 1 -1 0
446 3 1 -0.2418 13.74297270736345 10.339669195208373 19.90068840145964 0 0 0
365 3 8 0.081 13.280203795963319 13.30005658370094 16.97714286133068 1 -1 0
367 3 6 -0.2334 12.524117873342544 12.954746352017468 17.586884959474652 1 -1 0
368 3 11 0.098 10.44069126128555 13.123782406850207 17.93977311602317 1 -1 0
376 3 3 0.0815 10.5996201874896 12.620464276194983 15.506090879677686 1 -1 0
374 3 1 -0.2418 10.767470624630167 13.59812331893087 15.868733814368415 1 -1 0
730 3 9 0.081 10.368786177905221 12.091148270815586 19.946788660987885 1 0 0
448 3 3 0.0815 13.699354897934858 11.431685990150307 19.888343787463533 0 0 0
377 3 5 0.0815 9.911101014446412 14.227841539882034 15.75658139390462 1 -1 0
375 3 4 0.0815 11.581612330405633 13.987555179484803 15.26752659754026 1 -1 0
785 3 7 0.081 10.296540174225466 10.017177879407877 17.600037113529247 1 0 0
215 1 5 0.0815 11.880317403817397 10.572744460885147 15.011096283166804 0 0 0
575 3 5 0.0815 13.633129823279226 12.584165249376632 23.358429738123938 0 0 0
737 3 5 0.0815 10.562893901447662 11.204984917981264 23.475668588057346 1 0 0
441 3 14 0.0862 14.058782481543865 10.564991696956193 22.651822422497975 0 0 0
736 3 3 0.0815 11.441761020901726 11.37576552000882 21.993579799338303 1 0 0
444 3 2 -0.1131 14.854203364564556 9.900148537699913 20.849435061286076 0 0 0
734 3 1 -0.2418 10.529668796223365 10.947498836977587 22.447323738718783 1 0 0
735 3 4 0.0815 10.5771531488016 9.886458627504815 22.42523839973468 1 0 0
572 3 1 -0.2418 14.481909272205074 13.207386845850017 23.685533458845022 0 0 0
573 3 4 0.0815 14.00942103442959 13.965412596853636 24.322049633317782 0 0 0